# Molécula de agua TIP3P

3 atoms
2 bonds
1 angles

2 atom types
1 bond types
1 angle types

0.0 20.0 xlo xhi
0.0 20.0 ylo yhi
0.0 20.0 zlo zhi

Masses

1 15.9994 # O
2 1.008   # H

Atoms

1 1 1 -0.834 0.0 0.0 0.0 # O
2 2 2  0.417 0.0 0.757 0.0 # H1
3 3 2  0.417 0.0 -0.757 0.0 # H2

Bonds

1 1 1 2 # O-H1
2 1 1 3 # O-H2

Angles

1 1 2 1 3 # H-O-H